r 0.000158 /NodeList/1/DeviceList/0/$ns3::PointToPointNetDevice/MacRx ns3::PppHeader (Point-to-Point Protocol: IP (0x0021)) ns3::Ipv4Header (tos 0x0 DSCP Default ECN Not-ECT ttl 64 id 0 protocol 6 offset (bytes) 0 flags [none] length: 56 10.1.1.1 > 10.1.2.2) ns3::TcpHeader (49153 > 9 [ SYN ] Seq=0 Ack=0 Win=32768 ns3::TcpOptionWinScale(2) ns3::TcpOptionTS(0;0) ns3::TcpOptionEnd(EOL))
+ 0.201318 /NodeList/1/DeviceList/0/$ns3::PointToPointNetDevice/TxQueue/Enqueue ns3::PppHeader (Point-to-Point Protocol: IP (0x0021)) ns3::Ipv4Header (tos 0x0 DSCP Default ECN Not-ECT ttl 63 id 0 protocol 6 offset (bytes) 0 flags [none] length: 56 10.1.2.2 > 10.1.1.1) ns3::TcpHeader (9 > 49153 [ SYN  ACK ] Seq=0 Ack=1 Win=32768 ns3::TcpOptionWinScale(2) ns3::TcpOptionTS(100;0) ns3::TcpOptionEnd(EOL))
- 0.201318 /NodeList/1/DeviceList/0/$ns3::PointToPointNetDevice/TxQueue/Dequeue ns3::PppHeader (Point-to-Point Protocol: IP (0x0021)) ns3::Ipv4Header (tos 0x0 DSCP Default ECN Not-ECT ttl 63 id 0 protocol 6 offset (bytes) 0 flags [none] length: 56 10.1.2.2 > 10.1.1.1) ns3::TcpHeader (9 > 49153 [ SYN  ACK ] Seq=0 Ack=1 Win=32768 ns3::TcpOptionWinScale(2) ns3::TcpOptionTS(100;0) ns3::TcpOptionEnd(EOL))
r 0.20163 /NodeList/1/DeviceList/0/$ns3::PointToPointNetDevice/MacRx ns3::PppHeader (Point-to-Point Protocol: IP (0x0021)) ns3::Ipv4Header (tos 0x0 DSCP Default ECN Not-ECT ttl 64 id 1 protocol 6 offset (bytes) 0 flags [none] length: 52 10.1.1.1 > 10.1.2.2) ns3::TcpHeader (49153 > 9 [ ACK ] Seq=1 Ack=1 Win=32768 ns3::TcpOptionTS(201;100) ns3::TcpOptionEnd(EOL))
r 0.202196 /NodeList/1/DeviceList/0/$ns3::PointToPointNetDevice/MacRx ns3::PppHeader (Point-to-Point Protocol: IP (0x0021)) ns3::Ipv4Header (tos 0x0 DSCP Default ECN Not-ECT ttl 64 id 2 protocol 6 offset (bytes) 0 flags [none] length: 564 10.1.1.1 > 10.1.2.2) ns3::TcpHeader (49153 > 9 [ ACK ] Seq=1 Ack=1 Win=32768 ns3::TcpOptionTS(201;100) ns3::TcpOptionEnd(EOL)) Payload (size=512)
+ 0.408396 /NodeList/1/DeviceList/0/$ns3::PointToPointNetDevice/TxQueue/Enqueue ns3::PppHeader (Point-to-Point Protocol: IP (0x0021)) ns3::Ipv4Header (tos 0x0 DSCP Default ECN Not-ECT ttl 63 id 1 protocol 6 offset (bytes) 0 flags [none] length: 52 10.1.2.2 > 10.1.1.1) ns3::TcpHeader (9 > 49153 [ ACK ] Seq=1 Ack=513 Win=32640 ns3::TcpOptionTS(307;201) ns3::TcpOptionEnd(EOL))
- 0.408396 /NodeList/1/DeviceList/0/$ns3::PointToPointNetDevice/TxQueue/Dequeue ns3::PppHeader (Point-to-Point Protocol: IP (0x0021)) ns3::Ipv4Header (tos 0x0 DSCP Default ECN Not-ECT ttl 63 id 1 protocol 6 offset (bytes) 0 flags [none] length: 52 10.1.2.2 > 10.1.1.1) ns3::TcpHeader (9 > 49153 [ ACK ] Seq=1 Ack=513 Win=32640 ns3::TcpOptionTS(307;201) ns3::TcpOptionEnd(EOL))
r 0.409216 /NodeList/1/DeviceList/0/$ns3::PointToPointNetDevice/MacRx ns3::PppHeader (Point-to-Point Protocol: IP (0x0021)) ns3::Ipv4Header (tos 0x0 DSCP Default ECN Not-ECT ttl 64 id 3 protocol 6 offset (bytes) 0 flags [none] length: 564 10.1.1.1 > 10.1.2.2) ns3::TcpHeader (49153 > 9 [ ACK ] Seq=513 Ack=1 Win=32768 ns3::TcpOptionTS(408;307) ns3::TcpOptionEnd(EOL)) Payload (size=512)
r 0.409782 /NodeList/1/DeviceList/0/$ns3::PointToPointNetDevice/MacRx ns3::PppHeader (Point-to-Point Protocol: IP (0x0021)) ns3::Ipv4Header (tos 0x0 DSCP Default ECN Not-ECT ttl 64 id 4 protocol 6 offset (bytes) 0 flags [none] length: 564 10.1.1.1 > 10.1.2.2) ns3::TcpHeader (49153 > 9 [ ACK ] Seq=1025 Ack=1 Win=32768 ns3::TcpOptionTS(408;307) ns3::TcpOptionEnd(EOL)) Payload (size=512)
+ 0.621076 /NodeList/1/DeviceList/0/$ns3::PointToPointNetDevice/TxQueue/Enqueue ns3::PppHeader (Point-to-Point Protocol: IP (0x0021)) ns3::Ipv4Header (tos 0x0 DSCP Default ECN Not-ECT ttl 63 id 2 protocol 6 offset (bytes) 0 flags [none] length: 52 10.1.2.2 > 10.1.1.1) ns3::TcpHeader (9 > 49153 [ ACK ] Seq=1 Ack=1537 Win=32640 ns3::TcpOptionTS(520;408) ns3::TcpOptionEnd(EOL))
- 0.621076 /NodeList/1/DeviceList/0/$ns3::PointToPointNetDevice/TxQueue/Dequeue ns3::PppHeader (Point-to-Point Protocol: IP (0x0021)) ns3::Ipv4Header (tos 0x0 DSCP Default ECN Not-ECT ttl 63 id 2 protocol 6 offset (bytes) 0 flags [none] length: 52 10.1.2.2 > 10.1.1.1) ns3::TcpHeader (9 > 49153 [ ACK ] Seq=1 Ack=1537 Win=32640 ns3::TcpOptionTS(520;408) ns3::TcpOptionEnd(EOL))
r 0.621896 /NodeList/1/DeviceList/0/$ns3::PointToPointNetDevice/MacRx ns3::PppHeader (Point-to-Point Protocol: IP (0x0021)) ns3::Ipv4Header (tos 0x0 DSCP Default ECN Not-ECT ttl 64 id 5 protocol 6 offset (bytes) 0 flags [none] length: 564 10.1.1.1 > 10.1.2.2) ns3::TcpHeader (49153 > 9 [ ACK ] Seq=1537 Ack=1 Win=32768 ns3::TcpOptionTS(621;520) ns3::TcpOptionEnd(EOL)) Payload (size=512)
r 0.622462 /NodeList/1/DeviceList/0/$ns3::PointToPointNetDevice/MacRx ns3::PppHeader (Point-to-Point Protocol: IP (0x0021)) ns3::Ipv4Header (tos 0x0 DSCP Default ECN Not-ECT ttl 64 id 6 protocol 6 offset (bytes) 0 flags [none] length: 564 10.1.1.1 > 10.1.2.2) ns3::TcpHeader (49153 > 9 [ ACK ] Seq=2049 Ack=1 Win=32768 ns3::TcpOptionTS(621;520) ns3::TcpOptionEnd(EOL)) Payload (size=512)
r 0.623028 /NodeList/1/DeviceList/0/$ns3::PointToPointNetDevice/MacRx ns3::PppHeader (Point-to-Point Protocol: IP (0x0021)) ns3::Ipv4Header (tos 0x0 DSCP Default ECN Not-ECT ttl 64 id 7 protocol 6 offset (bytes) 0 flags [none] length: 564 10.1.1.1 > 10.1.2.2) ns3::TcpHeader (49153 > 9 [ ACK ] Seq=2561 Ack=1 Win=32768 ns3::TcpOptionTS(621;520) ns3::TcpOptionEnd(EOL)) Payload (size=512)
+ 0.833756 /NodeList/1/DeviceList/0/$ns3::PointToPointNetDevice/TxQueue/Enqueue ns3::PppHeader (Point-to-Point Protocol: IP (0x0021)) ns3::Ipv4Header (tos 0x0 DSCP Default ECN Not-ECT ttl 63 id 3 protocol 6 offset (bytes) 0 flags [none] length: 52 10.1.2.2 > 10.1.1.1) ns3::TcpHeader (9 > 49153 [ ACK ] Seq=1 Ack=2561 Win=32640 ns3::TcpOptionTS(733;621) ns3::TcpOptionEnd(EOL))
- 0.833756 /NodeList/1/DeviceList/0/$ns3::PointToPointNetDevice/TxQueue/Dequeue ns3::PppHeader (Point-to-Point Protocol: IP (0x0021)) ns3::Ipv4Header (tos 0x0 DSCP Default ECN Not-ECT ttl 63 id 3 protocol 6 offset (bytes) 0 flags [none] length: 52 10.1.2.2 > 10.1.1.1) ns3::TcpHeader (9 > 49153 [ ACK ] Seq=1 Ack=2561 Win=32640 ns3::TcpOptionTS(733;621) ns3::TcpOptionEnd(EOL))
r 0.834576 /NodeList/1/DeviceList/0/$ns3::PointToPointNetDevice/MacRx ns3::PppHeader (Point-to-Point Protocol: IP (0x0021)) ns3::Ipv4Header (tos 0x0 DSCP Default ECN Not-ECT ttl 64 id 8 protocol 6 offset (bytes) 0 flags [none] length: 564 10.1.1.1 > 10.1.2.2) ns3::TcpHeader (49153 > 9 [ ACK ] Seq=3073 Ack=1 Win=32768 ns3::TcpOptionTS(833;733) ns3::TcpOptionEnd(EOL)) Payload (size=512)
r 0.835142 /NodeList/1/DeviceList/0/$ns3::PointToPointNetDevice/MacRx ns3::PppHeader (Point-to-Point Protocol: IP (0x0021)) ns3::Ipv4Header (tos 0x0 DSCP Default ECN Not-ECT ttl 64 id 9 protocol 6 offset (bytes) 0 flags [none] length: 564 10.1.1.1 > 10.1.2.2) ns3::TcpHeader (49153 > 9 [ ACK ] Seq=3585 Ack=1 Win=32768 ns3::TcpOptionTS(833;733) ns3::TcpOptionEnd(EOL)) Payload (size=512)
r 0.835708 /NodeList/1/DeviceList/0/$ns3::PointToPointNetDevice/MacRx ns3::PppHeader (Point-to-Point Protocol: IP (0x0021)) ns3::Ipv4Header (tos 0x0 DSCP Default ECN Not-ECT ttl 64 id 10 protocol 6 offset (bytes) 0 flags [none] length: 564 10.1.1.1 > 10.1.2.2) ns3::TcpHeader (49153 > 9 [ ACK ] Seq=4097 Ack=1 Win=32768 ns3::TcpOptionTS(833;733) ns3::TcpOptionEnd(EOL)) Payload (size=512)
+ 1.03942 /NodeList/1/DeviceList/0/$ns3::PointToPointNetDevice/TxQueue/Enqueue ns3::PppHeader (Point-to-Point Protocol: IP (0x0021)) ns3::Ipv4Header (tos 0x0 DSCP Default ECN Not-ECT ttl 63 id 4 protocol 6 offset (bytes) 0 flags [none] length: 52 10.1.2.2 > 10.1.1.1) ns3::TcpHeader (9 > 49153 [ ACK ] Seq=1 Ack=3073 Win=32768 ns3::TcpOptionTS(938;621) ns3::TcpOptionEnd(EOL))
- 1.03942 /NodeList/1/DeviceList/0/$ns3::PointToPointNetDevice/TxQueue/Dequeue ns3::PppHeader (Point-to-Point Protocol: IP (0x0021)) ns3::Ipv4Header (tos 0x0 DSCP Default ECN Not-ECT ttl 63 id 4 protocol 6 offset (bytes) 0 flags [none] length: 52 10.1.2.2 > 10.1.1.1) ns3::TcpHeader (9 > 49153 [ ACK ] Seq=1 Ack=3073 Win=32768 ns3::TcpOptionTS(938;621) ns3::TcpOptionEnd(EOL))
r 1.04024 /NodeList/1/DeviceList/0/$ns3::PointToPointNetDevice/MacRx ns3::PppHeader (Point-to-Point Protocol: IP (0x0021)) ns3::Ipv4Header (tos 0x0 DSCP Default ECN Not-ECT ttl 64 id 11 protocol 6 offset (bytes) 0 flags [none] length: 564 10.1.1.1 > 10.1.2.2) ns3::TcpHeader (49153 > 9 [ ACK ] Seq=4609 Ack=1 Win=32768 ns3::TcpOptionTS(1039;938) ns3::TcpOptionEnd(EOL)) Payload (size=512)
r 1.0408 /NodeList/1/DeviceList/0/$ns3::PointToPointNetDevice/MacRx ns3::PppHeader (Point-to-Point Protocol: IP (0x0021)) ns3::Ipv4Header (tos 0x0 DSCP Default ECN Not-ECT ttl 64 id 12 protocol 6 offset (bytes) 0 flags [none] length: 564 10.1.1.1 > 10.1.2.2) ns3::TcpHeader (49153 > 9 [ ACK ] Seq=5121 Ack=1 Win=32768 ns3::TcpOptionTS(1039;938) ns3::TcpOptionEnd(EOL)) Payload (size=512)
+ 1.04644 /NodeList/1/DeviceList/0/$ns3::PointToPointNetDevice/TxQueue/Enqueue ns3::PppHeader (Point-to-Point Protocol: IP (0x0021)) ns3::Ipv4Header (tos 0x0 DSCP Default ECN Not-ECT ttl 63 id 5 protocol 6 offset (bytes) 0 flags [none] length: 52 10.1.2.2 > 10.1.1.1) ns3::TcpHeader (9 > 49153 [ ACK ] Seq=1 Ack=4097 Win=32640 ns3::TcpOptionTS(945;833) ns3::TcpOptionEnd(EOL))
- 1.04644 /NodeList/1/DeviceList/0/$ns3::PointToPointNetDevice/TxQueue/Dequeue ns3::PppHeader (Point-to-Point Protocol: IP (0x0021)) ns3::Ipv4Header (tos 0x0 DSCP Default ECN Not-ECT ttl 63 id 5 protocol 6 offset (bytes) 0 flags [none] length: 52 10.1.2.2 > 10.1.1.1) ns3::TcpHeader (9 > 49153 [ ACK ] Seq=1 Ack=4097 Win=32640 ns3::TcpOptionTS(945;833) ns3::TcpOptionEnd(EOL))
r 1.04726 /NodeList/1/DeviceList/0/$ns3::PointToPointNetDevice/MacRx ns3::PppHeader (Point-to-Point Protocol: IP (0x0021)) ns3::Ipv4Header (tos 0x0 DSCP Default ECN Not-ECT ttl 64 id 13 protocol 6 offset (bytes) 0 flags [none] length: 564 10.1.1.1 > 10.1.2.2) ns3::TcpHeader (49153 > 9 [ ACK ] Seq=5633 Ack=1 Win=32768 ns3::TcpOptionTS(1046;945) ns3::TcpOptionEnd(EOL)) Payload (size=512)
r 1.04782 /NodeList/1/DeviceList/0/$ns3::PointToPointNetDevice/MacRx ns3::PppHeader (Point-to-Point Protocol: IP (0x0021)) ns3::Ipv4Header (tos 0x0 DSCP Default ECN Not-ECT ttl 64 id 14 protocol 6 offset (bytes) 0 flags [none] length: 564 10.1.1.1 > 10.1.2.2) ns3::TcpHeader (49153 > 9 [ ACK ] Seq=6145 Ack=1 Win=32768 ns3::TcpOptionTS(1046;945) ns3::TcpOptionEnd(EOL)) Payload (size=512)
r 1.04839 /NodeList/1/DeviceList/0/$ns3::PointToPointNetDevice/MacRx ns3::PppHeader (Point-to-Point Protocol: IP (0x0021)) ns3::Ipv4Header (tos 0x0 DSCP Default ECN Not-ECT ttl 64 id 15 protocol 6 offset (bytes) 0 flags [none] length: 564 10.1.1.1 > 10.1.2.2) ns3::TcpHeader (49153 > 9 [ ACK ] Seq=6657 Ack=1 Win=32768 ns3::TcpOptionTS(1046;945) ns3::TcpOptionEnd(EOL)) Payload (size=512)
+ 1.24644 /NodeList/1/DeviceList/0/$ns3::PointToPointNetDevice/TxQueue/Enqueue ns3::PppHeader (Point-to-Point Protocol: IP (0x0021)) ns3::Ipv4Header (tos 0x0 DSCP Default ECN Not-ECT ttl 63 id 6 protocol 6 offset (bytes) 0 flags [none] length: 52 10.1.2.2 > 10.1.1.1) ns3::TcpHeader (9 > 49153 [ ACK ] Seq=1 Ack=5121 Win=32640 ns3::TcpOptionTS(1145;1039) ns3::TcpOptionEnd(EOL))
- 1.24644 /NodeList/1/DeviceList/0/$ns3::PointToPointNetDevice/TxQueue/Dequeue ns3::PppHeader (Point-to-Point Protocol: IP (0x0021)) ns3::Ipv4Header (tos 0x0 DSCP Default ECN Not-ECT ttl 63 id 6 protocol 6 offset (bytes) 0 flags [none] length: 52 10.1.2.2 > 10.1.1.1) ns3::TcpHeader (9 > 49153 [ ACK ] Seq=1 Ack=5121 Win=32640 ns3::TcpOptionTS(1145;1039) ns3::TcpOptionEnd(EOL))
r 1.24726 /NodeList/1/DeviceList/0/$ns3::PointToPointNetDevice/MacRx ns3::PppHeader (Point-to-Point Protocol: IP (0x0021)) ns3::Ipv4Header (tos 0x0 DSCP Default ECN Not-ECT ttl 64 id 16 protocol 6 offset (bytes) 0 flags [none] length: 564 10.1.1.1 > 10.1.2.2) ns3::TcpHeader (49153 > 9 [ ACK ] Seq=7169 Ack=1 Win=32768 ns3::TcpOptionTS(1246;1145) ns3::TcpOptionEnd(EOL)) Payload (size=512)
r 1.24782 /NodeList/1/DeviceList/0/$ns3::PointToPointNetDevice/MacRx ns3::PppHeader (Point-to-Point Protocol: IP (0x0021)) ns3::Ipv4Header (tos 0x0 DSCP Default ECN Not-ECT ttl 64 id 17 protocol 6 offset (bytes) 0 flags [none] length: 564 10.1.1.1 > 10.1.2.2) ns3::TcpHeader (49153 > 9 [ ACK ] Seq=7681 Ack=1 Win=32768 ns3::TcpOptionTS(1246;1145) ns3::TcpOptionEnd(EOL)) Payload (size=512)
r 1.24839 /NodeList/1/DeviceList/0/$ns3::PointToPointNetDevice/MacRx ns3::PppHeader (Point-to-Point Protocol: IP (0x0021)) ns3::Ipv4Header (tos 0x0 DSCP Default ECN Not-ECT ttl 64 id 18 protocol 6 offset (bytes) 0 flags [none] length: 564 10.1.1.1 > 10.1.2.2) ns3::TcpHeader (49153 > 9 [ ACK ] Seq=8193 Ack=1 Win=32768 ns3::TcpOptionTS(1246;1145) ns3::TcpOptionEnd(EOL)) Payload (size=512)
+ 1.25776 /NodeList/1/DeviceList/0/$ns3::PointToPointNetDevice/TxQueue/Enqueue ns3::PppHeader (Point-to-Point Protocol: IP (0x0021)) ns3::Ipv4Header (tos 0x0 DSCP Default ECN Not-ECT ttl 63 id 7 protocol 6 offset (bytes) 0 flags [none] length: 52 10.1.2.2 > 10.1.1.1) ns3::TcpHeader (9 > 49153 [ ACK ] Seq=1 Ack=6145 Win=32640 ns3::TcpOptionTS(1157;1046) ns3::TcpOptionEnd(EOL))
- 1.25776 /NodeList/1/DeviceList/0/$ns3::PointToPointNetDevice/TxQueue/Dequeue ns3::PppHeader (Point-to-Point Protocol: IP (0x0021)) ns3::Ipv4Header (tos 0x0 DSCP Default ECN Not-ECT ttl 63 id 7 protocol 6 offset (bytes) 0 flags [none] length: 52 10.1.2.2 > 10.1.1.1) ns3::TcpHeader (9 > 49153 [ ACK ] Seq=1 Ack=6145 Win=32640 ns3::TcpOptionTS(1157;1046) ns3::TcpOptionEnd(EOL))
r 1.25858 /NodeList/1/DeviceList/0/$ns3::PointToPointNetDevice/MacRx ns3::PppHeader (Point-to-Point Protocol: IP (0x0021)) ns3::Ipv4Header (tos 0x0 DSCP Default ECN Not-ECT ttl 64 id 19 protocol 6 offset (bytes) 0 flags [none] length: 564 10.1.1.1 > 10.1.2.2) ns3::TcpHeader (49153 > 9 [ ACK ] Seq=8705 Ack=1 Win=32768 ns3::TcpOptionTS(1257;1157) ns3::TcpOptionEnd(EOL)) Payload (size=512)
r 1.25914 /NodeList/1/DeviceList/0/$ns3::PointToPointNetDevice/MacRx ns3::PppHeader (Point-to-Point Protocol: IP (0x0021)) ns3::Ipv4Header (tos 0x0 DSCP Default ECN Not-ECT ttl 64 id 20 protocol 6 offset (bytes) 0 flags [none] length: 564 10.1.1.1 > 10.1.2.2) ns3::TcpHeader (49153 > 9 [ ACK ] Seq=9217 Ack=1 Win=32768 ns3::TcpOptionTS(1257;1157) ns3::TcpOptionEnd(EOL)) Payload (size=512)
r 1.25971 /NodeList/1/DeviceList/0/$ns3::PointToPointNetDevice/MacRx ns3::PppHeader (Point-to-Point Protocol: IP (0x0021)) ns3::Ipv4Header (tos 0x0 DSCP Default ECN Not-ECT ttl 64 id 21 protocol 6 offset (bytes) 0 flags [none] length: 564 10.1.1.1 > 10.1.2.2) ns3::TcpHeader (49153 > 9 [ ACK ] Seq=9729 Ack=1 Win=32768 ns3::TcpOptionTS(1257;1157) ns3::TcpOptionEnd(EOL)) Payload (size=512)
+ 1.26908 /NodeList/1/DeviceList/0/$ns3::PointToPointNetDevice/TxQueue/Enqueue ns3::PppHeader (Point-to-Point Protocol: IP (0x0021)) ns3::Ipv4Header (tos 0x0 DSCP Default ECN Not-ECT ttl 63 id 8 protocol 6 offset (bytes) 0 flags [none] length: 52 10.1.2.2 > 10.1.1.1) ns3::TcpHeader (9 > 49153 [ ACK ] Seq=1 Ack=6145 Win=32640 ns3::TcpOptionTS(1168;1046) ns3::TcpOptionEnd(EOL))
- 1.26908 /NodeList/1/DeviceList/0/$ns3::PointToPointNetDevice/TxQueue/Dequeue ns3::PppHeader (Point-to-Point Protocol: IP (0x0021)) ns3::Ipv4Header (tos 0x0 DSCP Default ECN Not-ECT ttl 63 id 8 protocol 6 offset (bytes) 0 flags [none] length: 52 10.1.2.2 > 10.1.1.1) ns3::TcpHeader (9 > 49153 [ ACK ] Seq=1 Ack=6145 Win=32640 ns3::TcpOptionTS(1168;1046) ns3::TcpOptionEnd(EOL))
+ 1.45346 /NodeList/1/DeviceList/0/$ns3::PointToPointNetDevice/TxQueue/Enqueue ns3::PppHeader (Point-to-Point Protocol: IP (0x0021)) ns3::Ipv4Header (tos 0x0 DSCP Default ECN Not-ECT ttl 63 id 9 protocol 6 offset (bytes) 0 flags [none] length: 52 10.1.2.2 > 10.1.1.1) ns3::TcpHeader (9 > 49153 [ ACK ] Seq=1 Ack=6145 Win=32512 ns3::TcpOptionTS(1352;1246) ns3::TcpOptionEnd(EOL))
- 1.45346 /NodeList/1/DeviceList/0/$ns3::PointToPointNetDevice/TxQueue/Dequeue ns3::PppHeader (Point-to-Point Protocol: IP (0x0021)) ns3::Ipv4Header (tos 0x0 DSCP Default ECN Not-ECT ttl 63 id 9 protocol 6 offset (bytes) 0 flags [none] length: 52 10.1.2.2 > 10.1.1.1) ns3::TcpHeader (9 > 49153 [ ACK ] Seq=1 Ack=6145 Win=32512 ns3::TcpOptionTS(1352;1246) ns3::TcpOptionEnd(EOL))
+ 1.45912 /NodeList/1/DeviceList/0/$ns3::PointToPointNetDevice/TxQueue/Enqueue ns3::PppHeader (Point-to-Point Protocol: IP (0x0021)) ns3::Ipv4Header (tos 0x0 DSCP Default ECN Not-ECT ttl 63 id 10 protocol 6 offset (bytes) 0 flags [none] length: 52 10.1.2.2 > 10.1.1.1) ns3::TcpHeader (9 > 49153 [ ACK ] Seq=1 Ack=6145 Win=32384 ns3::TcpOptionTS(1358;1246) ns3::TcpOptionEnd(EOL))
- 1.45912 /NodeList/1/DeviceList/0/$ns3::PointToPointNetDevice/TxQueue/Dequeue ns3::PppHeader (Point-to-Point Protocol: IP (0x0021)) ns3::Ipv4Header (tos 0x0 DSCP Default ECN Not-ECT ttl 63 id 10 protocol 6 offset (bytes) 0 flags [none] length: 52 10.1.2.2 > 10.1.1.1) ns3::TcpHeader (9 > 49153 [ ACK ] Seq=1 Ack=6145 Win=32384 ns3::TcpOptionTS(1358;1246) ns3::TcpOptionEnd(EOL))
r 1.45994 /NodeList/1/DeviceList/0/$ns3::PointToPointNetDevice/MacRx ns3::PppHeader (Point-to-Point Protocol: IP (0x0021)) ns3::Ipv4Header (tos 0x0 DSCP Default ECN Not-ECT ttl 64 id 22 protocol 6 offset (bytes) 0 flags [none] length: 564 10.1.1.1 > 10.1.2.2) ns3::TcpHeader (49153 > 9 [ ACK ] Seq=6145 Ack=1 Win=32768 ns3::TcpOptionTS(1459;1358) ns3::TcpOptionEnd(EOL)) Payload (size=512)
+ 1.46478 /NodeList/1/DeviceList/0/$ns3::PointToPointNetDevice/TxQueue/Enqueue ns3::PppHeader (Point-to-Point Protocol: IP (0x0021)) ns3::Ipv4Header (tos 0x0 DSCP Default ECN Not-ECT ttl 63 id 11 protocol 6 offset (bytes) 0 flags [none] length: 52 10.1.2.2 > 10.1.1.1) ns3::TcpHeader (9 > 49153 [ ACK ] Seq=1 Ack=6145 Win=32256 ns3::TcpOptionTS(1364;1246) ns3::TcpOptionEnd(EOL))
- 1.46478 /NodeList/1/DeviceList/0/$ns3::PointToPointNetDevice/TxQueue/Dequeue ns3::PppHeader (Point-to-Point Protocol: IP (0x0021)) ns3::Ipv4Header (tos 0x0 DSCP Default ECN Not-ECT ttl 63 id 11 protocol 6 offset (bytes) 0 flags [none] length: 52 10.1.2.2 > 10.1.1.1) ns3::TcpHeader (9 > 49153 [ ACK ] Seq=1 Ack=6145 Win=32256 ns3::TcpOptionTS(1364;1246) ns3::TcpOptionEnd(EOL))
+ 1.47044 /NodeList/1/DeviceList/0/$ns3::PointToPointNetDevice/TxQueue/Enqueue ns3::PppHeader (Point-to-Point Protocol: IP (0x0021)) ns3::Ipv4Header (tos 0x0 DSCP Default ECN Not-ECT ttl 63 id 12 protocol 6 offset (bytes) 0 flags [none] length: 52 10.1.2.2 > 10.1.1.1) ns3::TcpHeader (9 > 49153 [ ACK ] Seq=1 Ack=6145 Win=32128 ns3::TcpOptionTS(1369;1257) ns3::TcpOptionEnd(EOL))
- 1.47044 /NodeList/1/DeviceList/0/$ns3::PointToPointNetDevice/TxQueue/Dequeue ns3::PppHeader (Point-to-Point Protocol: IP (0x0021)) ns3::Ipv4Header (tos 0x0 DSCP Default ECN Not-ECT ttl 63 id 12 protocol 6 offset (bytes) 0 flags [none] length: 52 10.1.2.2 > 10.1.1.1) ns3::TcpHeader (9 > 49153 [ ACK ] Seq=1 Ack=6145 Win=32128 ns3::TcpOptionTS(1369;1257) ns3::TcpOptionEnd(EOL))
+ 1.4761 /NodeList/1/DeviceList/0/$ns3::PointToPointNetDevice/TxQueue/Enqueue ns3::PppHeader (Point-to-Point Protocol: IP (0x0021)) ns3::Ipv4Header (tos 0x0 DSCP Default ECN Not-ECT ttl 63 id 13 protocol 6 offset (bytes) 0 flags [none] length: 52 10.1.2.2 > 10.1.1.1) ns3::TcpHeader (9 > 49153 [ ACK ] Seq=1 Ack=6145 Win=32000 ns3::TcpOptionTS(1375;1257) ns3::TcpOptionEnd(EOL))
- 1.4761 /NodeList/1/DeviceList/0/$ns3::PointToPointNetDevice/TxQueue/Dequeue ns3::PppHeader (Point-to-Point Protocol: IP (0x0021)) ns3::Ipv4Header (tos 0x0 DSCP Default ECN Not-ECT ttl 63 id 13 protocol 6 offset (bytes) 0 flags [none] length: 52 10.1.2.2 > 10.1.1.1) ns3::TcpHeader (9 > 49153 [ ACK ] Seq=1 Ack=6145 Win=32000 ns3::TcpOptionTS(1375;1257) ns3::TcpOptionEnd(EOL))
+ 1.48176 /NodeList/1/DeviceList/0/$ns3::PointToPointNetDevice/TxQueue/Enqueue ns3::PppHeader (Point-to-Point Protocol: IP (0x0021)) ns3::Ipv4Header (tos 0x0 DSCP Default ECN Not-ECT ttl 63 id 14 protocol 6 offset (bytes) 0 flags [none] length: 52 10.1.2.2 > 10.1.1.1) ns3::TcpHeader (9 > 49153 [ ACK ] Seq=1 Ack=6145 Win=31872 ns3::TcpOptionTS(1381;1257) ns3::TcpOptionEnd(EOL))
- 1.48176 /NodeList/1/DeviceList/0/$ns3::PointToPointNetDevice/TxQueue/Dequeue ns3::PppHeader (Point-to-Point Protocol: IP (0x0021)) ns3::Ipv4Header (tos 0x0 DSCP Default ECN Not-ECT ttl 63 id 14 protocol 6 offset (bytes) 0 flags [none] length: 52 10.1.2.2 > 10.1.1.1) ns3::TcpHeader (9 > 49153 [ ACK ] Seq=1 Ack=6145 Win=31872 ns3::TcpOptionTS(1381;1257) ns3::TcpOptionEnd(EOL))
+ 1.66614 /NodeList/1/DeviceList/0/$ns3::PointToPointNetDevice/TxQueue/Enqueue ns3::PppHeader (Point-to-Point Protocol: IP (0x0021)) ns3::Ipv4Header (tos 0x0 DSCP Default ECN Not-ECT ttl 63 id 15 protocol 6 offset (bytes) 0 flags [none] length: 52 10.1.2.2 > 10.1.1.1) ns3::TcpHeader (9 > 49153 [ ACK ] Seq=1 Ack=10241 Win=31744 ns3::TcpOptionTS(1565;1459) ns3::TcpOptionEnd(EOL))
- 1.66614 /NodeList/1/DeviceList/0/$ns3::PointToPointNetDevice/TxQueue/Dequeue ns3::PppHeader (Point-to-Point Protocol: IP (0x0021)) ns3::Ipv4Header (tos 0x0 DSCP Default ECN Not-ECT ttl 63 id 15 protocol 6 offset (bytes) 0 flags [none] length: 52 10.1.2.2 > 10.1.1.1) ns3::TcpHeader (9 > 49153 [ ACK ] Seq=1 Ack=10241 Win=31744 ns3::TcpOptionTS(1565;1459) ns3::TcpOptionEnd(EOL))
r 1.66696 /NodeList/1/DeviceList/0/$ns3::PointToPointNetDevice/MacRx ns3::PppHeader (Point-to-Point Protocol: IP (0x0021)) ns3::Ipv4Header (tos 0x0 DSCP Default ECN Not-ECT ttl 64 id 23 protocol 6 offset (bytes) 0 flags [none] length: 564 10.1.1.1 > 10.1.2.2) ns3::TcpHeader (49153 > 9 [ ACK ] Seq=10241 Ack=1 Win=32768 ns3::TcpOptionTS(1666;1565) ns3::TcpOptionEnd(EOL)) Payload (size=512)
r 1.66752 /NodeList/1/DeviceList/0/$ns3::PointToPointNetDevice/MacRx ns3::PppHeader (Point-to-Point Protocol: IP (0x0021)) ns3::Ipv4Header (tos 0x0 DSCP Default ECN Not-ECT ttl 64 id 24 protocol 6 offset (bytes) 0 flags [none] length: 564 10.1.1.1 > 10.1.2.2) ns3::TcpHeader (49153 > 9 [ ACK ] Seq=10753 Ack=1 Win=32768 ns3::TcpOptionTS(1666;1565) ns3::TcpOptionEnd(EOL)) Payload (size=512)
+ 1.87882 /NodeList/1/DeviceList/0/$ns3::PointToPointNetDevice/TxQueue/Enqueue ns3::PppHeader (Point-to-Point Protocol: IP (0x0021)) ns3::Ipv4Header (tos 0x0 DSCP Default ECN Not-ECT ttl 63 id 16 protocol 6 offset (bytes) 0 flags [none] length: 52 10.1.2.2 > 10.1.1.1) ns3::TcpHeader (9 > 49153 [ ACK ] Seq=1 Ack=11265 Win=32640 ns3::TcpOptionTS(1778;1666) ns3::TcpOptionEnd(EOL))
- 1.87882 /NodeList/1/DeviceList/0/$ns3::PointToPointNetDevice/TxQueue/Dequeue ns3::PppHeader (Point-to-Point Protocol: IP (0x0021)) ns3::Ipv4Header (tos 0x0 DSCP Default ECN Not-ECT ttl 63 id 16 protocol 6 offset (bytes) 0 flags [none] length: 52 10.1.2.2 > 10.1.1.1) ns3::TcpHeader (9 > 49153 [ ACK ] Seq=1 Ack=11265 Win=32640 ns3::TcpOptionTS(1778;1666) ns3::TcpOptionEnd(EOL))
r 1.87964 /NodeList/1/DeviceList/0/$ns3::PointToPointNetDevice/MacRx ns3::PppHeader (Point-to-Point Protocol: IP (0x0021)) ns3::Ipv4Header (tos 0x0 DSCP Default ECN Not-ECT ttl 64 id 25 protocol 6 offset (bytes) 0 flags [none] length: 564 10.1.1.1 > 10.1.2.2) ns3::TcpHeader (49153 > 9 [ ACK ] Seq=11265 Ack=1 Win=32768 ns3::TcpOptionTS(1878;1778) ns3::TcpOptionEnd(EOL)) Payload (size=512)
r 1.8802 /NodeList/1/DeviceList/0/$ns3::PointToPointNetDevice/MacRx ns3::PppHeader (Point-to-Point Protocol: IP (0x0021)) ns3::Ipv4Header (tos 0x0 DSCP Default ECN Not-ECT ttl 64 id 26 protocol 6 offset (bytes) 0 flags [none] length: 564 10.1.1.1 > 10.1.2.2) ns3::TcpHeader (49153 > 9 [ ACK ] Seq=11777 Ack=1 Win=32768 ns3::TcpOptionTS(1878;1778) ns3::TcpOptionEnd(EOL)) Payload (size=512)
r 1.88077 /NodeList/1/DeviceList/0/$ns3::PointToPointNetDevice/MacRx ns3::PppHeader (Point-to-Point Protocol: IP (0x0021)) ns3::Ipv4Header (tos 0x0 DSCP Default ECN Not-ECT ttl 64 id 27 protocol 6 offset (bytes) 0 flags [none] length: 564 10.1.1.1 > 10.1.2.2) ns3::TcpHeader (49153 > 9 [ ACK ] Seq=12289 Ack=1 Win=32768 ns3::TcpOptionTS(1878;1778) ns3::TcpOptionEnd(EOL)) Payload (size=512)
+ 2.09716 /NodeList/1/DeviceList/0/$ns3::PointToPointNetDevice/TxQueue/Enqueue ns3::PppHeader (Point-to-Point Protocol: IP (0x0021)) ns3::Ipv4Header (tos 0x0 DSCP Default ECN Not-ECT ttl 63 id 17 protocol 6 offset (bytes) 0 flags [none] length: 52 10.1.2.2 > 10.1.1.1) ns3::TcpHeader (9 > 49153 [ ACK ] Seq=1 Ack=11777 Win=32640 ns3::TcpOptionTS(1996;1878) ns3::TcpOptionEnd(EOL))
- 2.09716 /NodeList/1/DeviceList/0/$ns3::PointToPointNetDevice/TxQueue/Dequeue ns3::PppHeader (Point-to-Point Protocol: IP (0x0021)) ns3::Ipv4Header (tos 0x0 DSCP Default ECN Not-ECT ttl 63 id 17 protocol 6 offset (bytes) 0 flags [none] length: 52 10.1.2.2 > 10.1.1.1) ns3::TcpHeader (9 > 49153 [ ACK ] Seq=1 Ack=11777 Win=32640 ns3::TcpOptionTS(1996;1878) ns3::TcpOptionEnd(EOL))
r 2.09798 /NodeList/1/DeviceList/0/$ns3::PointToPointNetDevice/MacRx ns3::PppHeader (Point-to-Point Protocol: IP (0x0021)) ns3::Ipv4Header (tos 0x0 DSCP Default ECN Not-ECT ttl 64 id 28 protocol 6 offset (bytes) 0 flags [none] length: 564 10.1.1.1 > 10.1.2.2) ns3::TcpHeader (49153 > 9 [ ACK ] Seq=12801 Ack=1 Win=32768 ns3::TcpOptionTS(2097;1996) ns3::TcpOptionEnd(EOL)) Payload (size=512)
r 2.09854 /NodeList/1/DeviceList/0/$ns3::PointToPointNetDevice/MacRx ns3::PppHeader (Point-to-Point Protocol: IP (0x0021)) ns3::Ipv4Header (tos 0x0 DSCP Default ECN Not-ECT ttl 64 id 29 protocol 6 offset (bytes) 0 flags [none] length: 564 10.1.1.1 > 10.1.2.2) ns3::TcpHeader (49153 > 9 [ ACK ] Seq=13313 Ack=1 Win=32768 ns3::TcpOptionTS(2097;1996) ns3::TcpOptionEnd(EOL)) Payload (size=512)
+ 2.30984 /NodeList/1/DeviceList/0/$ns3::PointToPointNetDevice/TxQueue/Enqueue ns3::PppHeader (Point-to-Point Protocol: IP (0x0021)) ns3::Ipv4Header (tos 0x0 DSCP Default ECN Not-ECT ttl 63 id 18 protocol 6 offset (bytes) 0 flags [none] length: 52 10.1.2.2 > 10.1.1.1) ns3::TcpHeader (9 > 49153 [ ACK ] Seq=1 Ack=11777 Win=32512 ns3::TcpOptionTS(2209;2097) ns3::TcpOptionEnd(EOL))
- 2.30984 /NodeList/1/DeviceList/0/$ns3::PointToPointNetDevice/TxQueue/Dequeue ns3::PppHeader (Point-to-Point Protocol: IP (0x0021)) ns3::Ipv4Header (tos 0x0 DSCP Default ECN Not-ECT ttl 63 id 18 protocol 6 offset (bytes) 0 flags [none] length: 52 10.1.2.2 > 10.1.1.1) ns3::TcpHeader (9 > 49153 [ ACK ] Seq=1 Ack=11777 Win=32512 ns3::TcpOptionTS(2209;2097) ns3::TcpOptionEnd(EOL))
r 3.09798 /NodeList/1/DeviceList/0/$ns3::PointToPointNetDevice/MacRx ns3::PppHeader (Point-to-Point Protocol: IP (0x0021)) ns3::Ipv4Header (tos 0x0 DSCP Default ECN Not-ECT ttl 64 id 30 protocol 6 offset (bytes) 0 flags [none] length: 564 10.1.1.1 > 10.1.2.2) ns3::TcpHeader (49153 > 9 [ ACK ] Seq=11777 Ack=1 Win=32768 ns3::TcpOptionTS(3097;2209) ns3::TcpOptionEnd(EOL)) Payload (size=512)
+ 3.30418 /NodeList/1/DeviceList/0/$ns3::PointToPointNetDevice/TxQueue/Enqueue ns3::PppHeader (Point-to-Point Protocol: IP (0x0021)) ns3::Ipv4Header (tos 0x0 DSCP Default ECN Not-ECT ttl 63 id 19 protocol 6 offset (bytes) 0 flags [none] length: 52 10.1.2.2 > 10.1.1.1) ns3::TcpHeader (9 > 49153 [ ACK ] Seq=1 Ack=12801 Win=32384 ns3::TcpOptionTS(3203;3097) ns3::TcpOptionEnd(EOL))
- 3.30418 /NodeList/1/DeviceList/0/$ns3::PointToPointNetDevice/TxQueue/Dequeue ns3::PppHeader (Point-to-Point Protocol: IP (0x0021)) ns3::Ipv4Header (tos 0x0 DSCP Default ECN Not-ECT ttl 63 id 19 protocol 6 offset (bytes) 0 flags [none] length: 52 10.1.2.2 > 10.1.1.1) ns3::TcpHeader (9 > 49153 [ ACK ] Seq=1 Ack=12801 Win=32384 ns3::TcpOptionTS(3203;3097) ns3::TcpOptionEnd(EOL))
r 3.305 /NodeList/1/DeviceList/0/$ns3::PointToPointNetDevice/MacRx ns3::PppHeader (Point-to-Point Protocol: IP (0x0021)) ns3::Ipv4Header (tos 0x0 DSCP Default ECN Not-ECT ttl 64 id 31 protocol 6 offset (bytes) 0 flags [none] length: 564 10.1.1.1 > 10.1.2.2) ns3::TcpHeader (49153 > 9 [ ACK ] Seq=12801 Ack=1 Win=32768 ns3::TcpOptionTS(3304;3203) ns3::TcpOptionEnd(EOL)) Payload (size=512)
r 3.30556 /NodeList/1/DeviceList/0/$ns3::PointToPointNetDevice/MacRx ns3::PppHeader (Point-to-Point Protocol: IP (0x0021)) ns3::Ipv4Header (tos 0x0 DSCP Default ECN Not-ECT ttl 64 id 32 protocol 6 offset (bytes) 0 flags [none] length: 564 10.1.1.1 > 10.1.2.2) ns3::TcpHeader (49153 > 9 [ ACK ] Seq=13313 Ack=1 Win=32768 ns3::TcpOptionTS(3304;3203) ns3::TcpOptionEnd(EOL)) Payload (size=512)
+ 3.5112 /NodeList/1/DeviceList/0/$ns3::PointToPointNetDevice/TxQueue/Enqueue ns3::PppHeader (Point-to-Point Protocol: IP (0x0021)) ns3::Ipv4Header (tos 0x0 DSCP Default ECN Not-ECT ttl 63 id 20 protocol 6 offset (bytes) 0 flags [none] length: 52 10.1.2.2 > 10.1.1.1) ns3::TcpHeader (9 > 49153 [ ACK ] Seq=1 Ack=13825 Win=32512 ns3::TcpOptionTS(3410;3304) ns3::TcpOptionEnd(EOL))
- 3.5112 /NodeList/1/DeviceList/0/$ns3::PointToPointNetDevice/TxQueue/Dequeue ns3::PppHeader (Point-to-Point Protocol: IP (0x0021)) ns3::Ipv4Header (tos 0x0 DSCP Default ECN Not-ECT ttl 63 id 20 protocol 6 offset (bytes) 0 flags [none] length: 52 10.1.2.2 > 10.1.1.1) ns3::TcpHeader (9 > 49153 [ ACK ] Seq=1 Ack=13825 Win=32512 ns3::TcpOptionTS(3410;3304) ns3::TcpOptionEnd(EOL))
r 3.51202 /NodeList/1/DeviceList/0/$ns3::PointToPointNetDevice/MacRx ns3::PppHeader (Point-to-Point Protocol: IP (0x0021)) ns3::Ipv4Header (tos 0x0 DSCP Default ECN Not-ECT ttl 64 id 33 protocol 6 offset (bytes) 0 flags [none] length: 564 10.1.1.1 > 10.1.2.2) ns3::TcpHeader (49153 > 9 [ ACK ] Seq=13825 Ack=1 Win=32768 ns3::TcpOptionTS(3511;3410) ns3::TcpOptionEnd(EOL)) Payload (size=512)
r 3.51258 /NodeList/1/DeviceList/0/$ns3::PointToPointNetDevice/MacRx ns3::PppHeader (Point-to-Point Protocol: IP (0x0021)) ns3::Ipv4Header (tos 0x0 DSCP Default ECN Not-ECT ttl 64 id 34 protocol 6 offset (bytes) 0 flags [none] length: 564 10.1.1.1 > 10.1.2.2) ns3::TcpHeader (49153 > 9 [ ACK ] Seq=14337 Ack=1 Win=32768 ns3::TcpOptionTS(3511;3410) ns3::TcpOptionEnd(EOL)) Payload (size=512)
+ 3.51686 /NodeList/1/DeviceList/0/$ns3::PointToPointNetDevice/TxQueue/Enqueue ns3::PppHeader (Point-to-Point Protocol: IP (0x0021)) ns3::Ipv4Header (tos 0x0 DSCP Default ECN Not-ECT ttl 63 id 21 protocol 6 offset (bytes) 0 flags [none] length: 52 10.1.2.2 > 10.1.1.1) ns3::TcpHeader (9 > 49153 [ ACK ] Seq=1 Ack=13825 Win=32768 ns3::TcpOptionTS(3416;3304) ns3::TcpOptionEnd(EOL))